<?xml version="1.0" encoding="UTF-8"?>

<!-- generated on 2022-03-24 16:07:08 by Eclipse SUMO GUI Version 1.12.0
<configuration xmlns:xsi="http://www.w3.org/2001/XMLSchema-instance" xsi:noNamespaceSchemaLocation="http://sumo.dlr.de/xsd/sumoConfiguration.xsd">

    <input>
        <net-file value="./configurations/simple_grid1.net.xml"/>
        <route-files value="./configurations/str_sumo.rou.xml"/>
    </input>

    <output>
        <netstate-dump value="./configurations/test_dump.xml"/>
        <fcd-output value="./configurations/testTrace.xml"/>
        <tripinfo-output value="./configurations/trips.trips.xml"/>
    </output>

    <time>
        <begin value="0"/>
        <end value="200000"/>
    </time>

    <traci_server>
        <remote-port value="53580"/>
    </traci_server>

</configuration>
-->

<tripinfos xmlns:xsi="http://www.w3.org/2001/XMLSchema-instance" xsi:noNamespaceSchemaLocation="http://sumo.dlr.de/xsd/tripinfo_file.xsd">
    <tripinfo id="2" depart="5.00" departLane="gneE18_0" departPos="5.10" departSpeed="0.00" departDelay="0.00" arrival="11.00" arrivalLane="gneE18_0" arrivalPos="45.54" arrivalSpeed="12.89" duration="6.00" routeLength="40.44" waitingTime="0.00" waitingCount="0" stopTime="0.00" timeLoss="2.80" rerouteNo="0" devices="tripinfo_2 fcd_2" vType="DEFAULT_VEHTYPE" speedFactor="1.03" vaporized=""/>
    <tripinfo id="1" depart="3.00" departLane="-gneE20_0" departPos="5.10" departSpeed="0.00" departDelay="0.50" arrival="32.00" arrivalLane="-gneE18_0" arrivalPos="45.54" arrivalSpeed="14.01" duration="29.00" routeLength="295.55" waitingTime="0.00" waitingCount="0" stopTime="0.00" timeLoss="7.09" rerouteNo="0" devices="tripinfo_1 fcd_1" vType="DEFAULT_VEHTYPE" speedFactor="1.01" vaporized=""/>
    <tripinfo id="13" depart="33.00" departLane="-gneE12_0" departPos="5.10" departSpeed="0.00" departDelay="0.50" arrival="38.00" arrivalLane="-gneE12_0" arrivalPos="27.94" arrivalSpeed="9.45" duration="5.00" routeLength="22.84" waitingTime="0.00" waitingCount="0" stopTime="0.00" timeLoss="2.86" rerouteNo="0" devices="tripinfo_13 fcd_13" vType="DEFAULT_VEHTYPE" speedFactor="0.92" vaporized=""/>
    <tripinfo id="14" depart="35.00" departLane="gneE23_0" departPos="5.10" departSpeed="0.00" departDelay="0.00" arrival="43.00" arrivalLane="gneE14_0" arrivalPos="20.71" arrivalSpeed="15.44" duration="8.00" routeLength="74.77" waitingTime="0.00" waitingCount="0" stopTime="0.00" timeLoss="2.96" rerouteNo="0" devices="tripinfo_14 fcd_14" vType="DEFAULT_VEHTYPE" speedFactor="1.13" vaporized=""/>
    <tripinfo id="8" depart="20.00" departLane="-gneE18_0" departPos="5.10" departSpeed="0.00" departDelay="0.00" arrival="54.00" arrivalLane="gneE13_0" arrivalPos="162.05" arrivalSpeed="10.40" duration="34.00" routeLength="298.46" waitingTime="0.00" waitingCount="0" stopTime="0.00" timeLoss="7.92" rerouteNo="0" devices="tripinfo_8 fcd_8" vType="DEFAULT_VEHTYPE" speedFactor="0.88" vaporized=""/>
    <tripinfo id="4" depart="10.00" departLane="-gneE26_0" departPos="5.10" departSpeed="0.00" departDelay="0.00" arrival="55.00" arrivalLane="-gneE10_0" arrivalPos="40.02" arrivalSpeed="12.37" duration="45.00" routeLength="370.27" waitingTime="3.00" waitingCount="1" stopTime="0.00" timeLoss="13.72" rerouteNo="0" devices="tripinfo_4 fcd_4" vType="DEFAULT_VEHTYPE" speedFactor="0.94" vaporized=""/>
    <tripinfo id="9" depart="25.00" departLane="gneE22_0" departPos="5.10" departSpeed="0.00" departDelay="2.50" arrival="57.00" arrivalLane="-gneE10_0" arrivalPos="40.02" arrivalSpeed="13.00" duration="32.00" routeLength="262.95" waitingTime="0.00" waitingCount="0" stopTime="0.00" timeLoss="9.53" rerouteNo="0" devices="tripinfo_9 fcd_9" vType="DEFAULT_VEHTYPE" speedFactor="0.94" vaporized=""/>
    <tripinfo id="16" depart="40.00" departLane="gneE10_0" departPos="5.10" departSpeed="0.00" departDelay="0.00" arrival="85.00" arrivalLane="gneE9_0" arrivalPos="168.72" arrivalSpeed="12.76" duration="45.00" routeLength="430.79" waitingTime="0.00" waitingCount="0" stopTime="0.00" timeLoss="12.34" rerouteNo="0" devices="tripinfo_16 fcd_16" vType="DEFAULT_VEHTYPE" speedFactor="1.01" vaporized=""/>
    <tripinfo id="10" depart="28.00" departLane="gneE22_0" departPos="5.10" departSpeed="0.00" departDelay="3.00" arrival="103.00" arrivalLane="gneE18_0" arrivalPos="45.54" arrivalSpeed="9.17" duration="75.00" routeLength="224.13" waitingTime="44.00" waitingCount="1" stopTime="0.00" timeLoss="59.01" rerouteNo="0" devices="tripinfo_10 fcd_10" vType="DEFAULT_VEHTYPE" speedFactor="1.02" vaporized=""/>
    <tripinfo id="0" depart="0.00" departLane="gneE13_0" departPos="5.10" departSpeed="0.00" departDelay="0.00" arrival="105.00" arrivalLane="-gneE10_0" arrivalPos="40.02" arrivalSpeed="10.97" duration="105.00" routeLength="271.07" waitingTime="67.00" waitingCount="2" stopTime="0.00" timeLoss="85.30" rerouteNo="0" devices="tripinfo_0 fcd_0" vType="DEFAULT_VEHTYPE" speedFactor="1.06" vaporized=""/>
    <tripinfo id="3" depart="8.00" departLane="gneE25_0" departPos="5.10" departSpeed="0.00" departDelay="0.50" arrival="106.00" arrivalLane="-gneE12_0" arrivalPos="27.94" arrivalSpeed="13.56" duration="98.00" routeLength="383.52" waitingTime="51.00" waitingCount="2" stopTime="0.00" timeLoss="69.53" rerouteNo="0" devices="tripinfo_3 fcd_3" vType="DEFAULT_VEHTYPE" speedFactor="1.05" vaporized=""/>
    <tripinfo id="12" depart="31.00" departLane="gneE28_0" departPos="5.10" departSpeed="0.00" departDelay="1.00" arrival="115.00" arrivalLane="-gneE25_0" arrivalPos="70.98" arrivalSpeed="10.54" duration="84.00" routeLength="350.08" waitingTime="37.00" waitingCount="1" stopTime="0.00" timeLoss="51.61" rerouteNo="0" devices="tripinfo_12 fcd_12" vType="DEFAULT_VEHTYPE" speedFactor="0.83" vaporized=""/>
    <tripinfo id="15" depart="40.00" departLane="gneE22_0" departPos="5.10" departSpeed="0.00" departDelay="2.50" arrival="132.00" arrivalLane="gneE19_0" arrivalPos="130.57" arrivalSpeed="9.26" duration="92.00" routeLength="361.49" waitingTime="50.00" waitingCount="1" stopTime="0.00" timeLoss="68.89" rerouteNo="0" devices="tripinfo_15 fcd_15" vType="DEFAULT_VEHTYPE" speedFactor="1.18" vaporized=""/>
    <tripinfo id="5" depart="13.00" departLane="-gneE18_0" departPos="5.10" departSpeed="0.00" departDelay="0.50" arrival="144.00" arrivalLane="gneE11_0" arrivalPos="159.77" arrivalSpeed="4.36" duration="131.00" routeLength="482.16" waitingTime="69.00" waitingCount="3" stopTime="0.00" timeLoss="97.28" rerouteNo="0" devices="tripinfo_5 fcd_5" vType="DEFAULT_VEHTYPE" speedFactor="1.09" vaporized=""/>
    <t</tripinfos>
" depart="15.00" departLane="-gneE10_0" departPos="5.10" departSpeed="0.00" departDelay="0.00" arrival="144.00" arrivalLane="-gneE15_0" arrivalPos="83.62" arrivalSpeed="5.79" duration="129.00" routeLength="572.02" waitingTime="65.00" waitingCount="2" stopTime="0.00" timeLoss="87.45" rerouteNo="0" devices="tripinfo_6 fcd_6" vType="DEFAULT_VEHTYPE" speedFactor="1.05" vaporized=""/>
    <tripinfo id="18" depart="45.00" departLane="gneE22_0" departPos="5.10" departSpeed="0.00" departDelay="0.00" arrival="146.00" arrivalLane="gneE14_0" arrivalPos="20.71" arrivalSpeed="11.65" duration="101.00" routeLength="282.54" waitingTime="63.00" waitingCount="2" stopTime="0.00" timeLoss="78.24" rerouteNo="0" devices="tripinfo_18 fcd_18" vType="DEFAULT_VEHTYPE" speedFactor="0.97" vaporized=""/>
    <tripinfo id="7" depart="18.00" departLane="gneE13_0" departPos="5.10" departSpeed="0.00" departDelay="0.50" arrival="147.00" arrivalLane="gneE12_0" arrivalPos="27.94" arrivalSpeed="13.51" duration="129.00" routeLength="430.95" waitingTime="71.00" waitingCount="3" stopTime="0.00" timeLoss="95.00" rerouteNo="0" devices="tripinfo_7 fcd_7" vType="DEFAULT_VEHTYPE" speedFactor="0.99" vaporized=""/>
    <tripinfo id="17" depart="46.00" departLane="-gneE25_0" departPos="5.10" departSpeed="0.00" departDelay="3.50" arrival="152.00" arrivalLane="gneE12_0" arrivalPos="27.94" arrivalSpeed="13.20" duration="106.00" routeLength="375.87" waitingTime="54.00" waitingCount="2" stopTime="0.00" timeLoss="76.43" rerouteNo="0" devices="tripinfo_17 fcd_17" vType="DEFAULT_VEHTYPE" speedFactor="0.99" vaporized=""/>
    <tripinfo id="19" depart="48.00" departLane="gneE23_0" departPos="5.10" departSpeed="0.00" departDelay="0.50" arrival="163.00" arrivalLane="gneE13_0" arrivalPos="162.05" arrivalSpeed="15.09" duration="115.00" routeLength="500.00" waitingTime="59.00" waitingCount="2" stopTime="0.00" timeLoss="80.33" rerouteNo="0" devices="tripinfo_19 fcd_19" vType="DEFAULT_VEHTYPE" speedFactor="1.10" vaporized=""/>
    <tripinfo id="11" depart="28.00" departLane="-gneE23_0" departPos="5.10" departSpeed="0.00" departDelay="0.50" arrival="189.00" arrivalLane="-gneE14_0" arrivalPos="20.71" arrivalSpeed="4.86" duration="161.00" routeLength="555.37" waitingTime="94.00" waitingCount="3" stopTime="0.00" timeLoss="117.05" rerouteNo="0" devices="tripinfo_11 fcd_11" vType="DEFAULT_VEHTYPE" speedFactor="0.98" vaporized=""/>
</tripinfos>
