<?xml version="1.0" encoding="UTF-8"?>

<!-- generated on 2022-03-23 13:39:54 by Eclipse SUMO GUI Version 1.12.0
<configuration xmlns:xsi="http://www.w3.org/2001/XMLSchema-instance" xsi:noNamespaceSchemaLocation="http://sumo.dlr.de/xsd/sumoConfiguration.xsd">

    <input>
        <net-file value="./configurations/simple_grid1.net.xml"/>
        <route-files value="./configurations/str_sumo.rou.xml"/>
    </input>

    <output>
        <netstate-dump value="./configurations/test_dump.xml"/>
        <fcd-output value="./configurations/testTrace.xml"/>
        <tripinfo-output value="./configurations/trips.trips.xml"/>
    </output>

    <time>
        <begin value="0"/>
        <end value="200000"/>
    </time>

    <traci_server>
        <remote-port value="50984"/>
    </traci_server>

</configuration>
-->

<tripinfos xmlns:xsi="http://www.w3.org/2001/XMLSchema-instance" xsi:noNamespaceSchemaLocation="http://sumo.dlr.de/xsd/tripinfo_file.xsd">
</tripinfos>
 id="2" depart="1.00" departLane="gneE18_0" departPos="5.10" departSpeed="0.00" departDelay="0.00" arrival="7.00" arrivalLane="gneE18_0" arrivalPos="45.54" arrivalSpeed="12.89" duration="6.00" routeLength="40.44" waitingTime="0.00" waitingCount="0" stopTime="0.00" timeLoss="2.96" rerouteNo="0" devices="tripinfo_2 fcd_2" vType="DEFAULT_VEHTYPE" speedFactor="1.08" vaporized=""/>
    <tripinfo id="13" depart="7.00" departLane="-gneE12_0" departPos="5.10" departSpeed="0.00" departDelay="0.50" arrival="12.00" arrivalLane="-gneE12_0" arrivalPos="27.94" arrivalSpeed="9.45" duration="5.00" routeLength="22.84" waitingTime="0.00" waitingCount="0" stopTime="0.00" timeLoss="2.91" rerouteNo="0" devices="tripinfo_13 fcd_13" vType="DEFAULT_VEHTYPE" speedFactor="0.94" vaporized=""/>
    <tripinfo id="14" depart="7.00" departLane="gneE23_0" departPos="5.10" departSpeed="0.00" departDelay="0.00" arrival="15.00" arrivalLane="gneE14_0" arrivalPos="20.71" arrivalSpeed="15.81" duration="8.00" routeLength="74.77" waitingTime="0.00" waitingCount="0" stopTime="0.00" timeLoss="3.14" rerouteNo="0" devices="tripinfo_14 fcd_14" vType="DEFAULT_VEHTYPE" speedFactor="1.16" vaporized=""/>
    <tripinfo id="34" depart="17.00" departLane="-gneE22_0" departPos="5.10" departSpeed="0.00" departDelay="0.00" arrival="23.00" arrivalLane="-gneE22_0" arrivalPos="41.14" arrivalSpeed="12.93" duration="6.00" routeLength="36.04" waitingTime="0.00" waitingCount="0" stopTime="0.00" timeLoss="2.94" rerouteNo="0" devices="tripinfo_34 fcd_34" vType="DEFAULT_VEHTYPE" speedFactor="1.09" vaporized=""/>
    <tripinfo id="10" depart="8.00" departLane="gneE22_0" departPos="5.10" departSpeed="0.00" departDelay="3.00" arrival="27.00" arrivalLane="gneE18_0" arrivalPos="45.54" arrivalSpeed="14.68" duration="19.00" routeLength="224.13" waitingTime="0.00" waitingCount="0" stopTime="0.00" timeLoss="4.00" rerouteNo="0" devices="tripinfo_10 fcd_10" vType="DEFAULT_VEHTYPE" speedFactor="1.12" vaporized=""/>
    <tripinfo id="1" depart="1.00" departLane="-gneE20_0" departPos="5.10" departSpeed="0.00" departDelay="0.50" arrival="30.00" arrivalLane="-gneE18_0" arrivalPos="45.54" arrivalSpeed="13.62" duration="29.00" routeLength="295.55" waitingTime="0.00" waitingCount="0" stopTime="0.00" timeLoss="7.10" rerouteNo="0" devices="tripinfo_1 fcd_1" vType="DEFAULT_VEHTYPE" speedFactor="1.01" vaporized=""/>
    <tripinfo id="21" depart="11.00" departLane="-gneE18_0" departPos="5.10" departSpeed="0.00" departDelay="0.50" arrival="30.00" arrivalLane="-gneE22_0" arrivalPos="41.14" arrivalSpeed="15.71" duration="19.00" routeLength="223.93" waitingTime="0.00" waitingCount="0" stopTime="0.00" timeLoss="4.28" rerouteNo="0" devices="tripinfo_21 fcd_21" vType="DEFAULT_VEHTYPE" speedFactor="1.13" vaporized=""/>
    <tripinfo id="39" depart="20.00" departLane="-gneE19_0" departPos="5.10" departSpeed="0.00" departDelay="0.50" arrival="32.00" arrivalLane="-gneE19_0" arrivalPos="130.57" arrivalSpeed="15.96" duration="12.00" routeLength="125.47" waitingTime="0.00" waitingCount="0" stopTime="0.00" timeLoss="3.93" rerouteNo="0" devices="tripinfo_39 fcd_39" vType="DEFAULT_VEHTYPE" speedFactor="1.17" vaporized=""/>
    <tripinfo id="79" depart="40.00" departLane="-gneE18_0" departPos="5.10" departSpeed="0.00" departDelay="0.50" arrival="51.00" arrivalLane="-gneE18_0" arrivalPos="45.54" arrivalSpeed="4.91" duration="11.00" routeLength="40.44" waitingTime="0.00" waitingCount="0" stopTime="0.00" timeLoss="7.87" rerouteNo="0" devices="tripinfo_79 fcd_79" vType="DEFAULT_VEHTYPE" speedFactor="0.95" vaporized=""/>
    <tripinfo id="9" depart="5.00" departLane="gneE22_0" departPos="5.10" departSpeed="0.00" departDelay="0.50" arrival="55.00" arrivalLane="-gneE10_0" arrivalPos="40.02" arrivalSpeed="14.47" duration="50.00" routeLength="262.95" waitingTime="20.00" waitingCount="1" stopTime="0.00" timeLoss="29.58" rerouteNo="0" devices="tripinfo_9 fcd_9" vType="DEFAULT_VEHTYPE" speedFactor="1.05" vaporized=""/>
    <tripinfo id="30" depart="15.00" departLane="gneE9_0" departPos="5.10" departSpeed="0.00" departDelay="0.00" arrival="57.00" arrivalLane="gneE15_0" arrivalPos="83.62" arrivalSpeed="13.98" duration="42.00" routeLength="393.77" waitingTime="2.00" waitingCount="1" stopTime="0.00" timeLoss="13.94" rerouteNo="0" devices="tripinfo_30 fcd_30" vType="DEFAULT_VEHTYPE" speedFactor="1.03" vaporized=""/>
    <tripinfo id="8" depart="6.00" departLane="-gneE18_0" departPos="5.10" departSpeed="0.00" departDelay="2.00" arrival="58.00" arrivalLane="gneE13_0" arrivalPos="162.05" arrivalSpeed="8.27" duration="52.00" routeLength="298.46" waitingTime="15.00" waitingCount="1" stopTime="0.00" timeLoss="30.01" rerouteNo="0" devices="tripinfo_8 fcd_8" vType="DEFAULT_VEHTYPE" speedFactor="1.03" vaporized=""/>
    <tripinfo id="44" depart="26.00" departLane="-gneE12_0" departPos="5.10" departSpeed="0.00" departDelay="4.00" arrival="58.00" arrivalLane="-gneE11_0" arrivalPos="159.77" arrivalSpeed="8.41" duration="32.00" routeLength="190.72" waitingTime="5.00" waitingCount="1" stopTime="0.00" timeLoss="18.04" rerouteNo="0" devices="tripinfo_44 fcd_44" vType="DEFAULT_VEHTYPE" speedFactor="1.02" vaporized=""/>
    <tripinfo id="4" depart="2.00" departLane="-gneE26_0" departPos="5.10" departSpeed="0.00" departDelay="0.00" arrival="59.00" arrivalLane="-gneE10_0" arrivalPos="40.02" arrivalSpeed="12.66" duration="57.00" routeLength="370.27" waitingTime="15.00" waitingCount="1" stopTime="0.00" timeLoss="29.47" rerouteNo="0" devices="tripinfo_4 fcd_4" vType="DEFAULT_VEHTYPE" speedFactor="1.05" vaporized=""/>
    <tripinfo id="27" depart="15.00" departLane="gneE13_0" departPos="5.10" departSpeed="0.00" departDelay="1.50" arrival="60.00" arrivalLane="gneE14_0" arrivalPos="20.71" arrivalSpeed="9.80" duration="45.00" routeLength="187.00" waitingTime="18.00" waitingCount="1" stopTime="0.00" timeLoss="30.23" rerouteNo="0" devices="tripinfo_27 fcd_27" vType="DEFAULT_VEHTYPE" speedFactor="0.97" vaporized=""/>
    <tripinfo id="81" depart="43.00" departLane="-gneE18_0" departPos="5.10" departSpeed="0.00" departDelay="2.50" arrival="62.00" arrivalLane="gneE27_0" arrivalPos="77.59" arrivalSpeed="13.59" duration="19.00" routeLength="129.04" waitingTime="0.00" waitingCount="0" stopTime="0.00" timeLoss="8.53" rerouteNo="0" devices="tripinfo_81 fcd_81" vType="DEFAULT_VEHTYPE" speedFactor="1.01" vaporized=""/>
    <tripinfo id="43" depart="23.00" departLane="gneE9_0" departPos="5.10" departSpeed="0.00" departDelay="1.50" arrival="65.00" arrivalLane="gneE11_0" arrivalPos="159.77" arrivalSpeed="11.94" duration="42.00" routeLength="374.98" waitingTime="0.00" waitingCount="0" stopTime="0.00" timeLoss="10.60" rerouteNo="0" devices="tripinfo_43 fcd_43" vType="DEFAULT_VEHTYPE" speedFactor="0.90" vaporized=""/>
    <tripinfo id="48" depart="26.00" departLane="gneE9_0" departPos="5.10" departSpeed="0.00" departDelay="2.00" arrival="67.00" arrivalLane="gneE11_0" arrivalPos="159.77" arrivalSpeed="13.57" duration="41.00" routeLength="374.98" waitingTime="0.00" waitingCount="0" stopTime="0.00" timeLoss="11.87" rerouteNo="0" devices="tripinfo_48 fcd_48" vType="DEFAULT_VEHTYPE" speedFactor="0.99" vaporized=""/>
    <tripinfo id="18" depart="18.00" departLane="gneE22_0" departPos="5.10" departSpeed="0.00" departDelay="9.00" arrival="68.00" arrivalLane="gneE14_0" arrivalPos="20.71" arrivalSpeed="10.05" duration="50.00" routeLength="282.54" waitingTime="8.00" waitingCount="1" stopTime="0.00" timeLoss="22.95" rerouteNo="0" devices="tripinfo_18 fcd_18" vType="DEFAULT_VEHTYPE" speedFactor="0.83" vaporized=""/>
    <tripinfo id="31" depart="16.00" departLane="gneE10_0" departPos="5.10" departSpeed="0.00" departDelay="0.50" arrival="69.00" arrivalLane="gneE18_0" arrivalPos="45.54" arrivalSpeed="12.18" duration="53.00" routeLength="363.33" waitingTime="2.00" waitingCount="1" stopTime="0.00" timeLoss="24.29" rerouteNo="0" devices="tripinfo_31 fcd_31" vType="DEFAULT_VEHTYPE" speedFactor="0.96" vaporized=""/>
    <tripinfo id="41" depart="22.00" departLane="gneE11_0" departPos="5.10" departSpeed="0.00" departDelay="1.50" arrival="69.00" arrivalLane="gneE26_0" arrivalPos="97.15" arrivalSpeed="13.33" duration="47.00" routeLength="315.47" waitingTime="10.00" waitingCount="1" stopTime="0.00" timeLoss="23.03" rerouteNo="0" devices="tripinfo_41 fcd_41" vType="DEFAULT_VEHTYPE" speedFactor="1.00" vaporized=""/>
    <tripinfo id="55" depart="28.00" departLane="gneE25_0" departPos="5.10" departSpeed="0.00" departDelay="0.50" arrival="70.00" arrivalLane="-gneE19_0" arrivalPos="130.57" arrivalSpeed="6.39" duration="42.00" routeLength="206.12" waitingTime="12.00" waitingCount="1" stopTime="0.00" timeLoss="25.75" rerouteNo="0" devices="tripinfo_55 fcd_55" vType="DEFAULT_VEHTYPE" speedFactor="0.94" vaporized=""/>
    <tripinfo id="90" depart="45.00" departLane="gneE15_0" departPos="5.10" departSpeed="0.00" departDelay="0.00" arrival="79.00" arrivalLane="gneE18_0" arrivalPos="45.54" arrivalSpeed="13.25" duration="34.00" routeLength="219.26" waitingTime="0.00" waitingCount="0" stopTime="0.00" timeLoss="17.22" rerouteNo="0" devices="tripinfo_90 fcd_90" vType="DEFAULT_VEHTYPE" speedFactor="0.99" vaporized=""/>
    <tripinfo id="37" depart="24.00" departLane="gneE13_0" departPos="5.10" departSpeed="0.00" departDelay="5.50" arrival="83.00" arrivalLane="-gneE27_0" arrivalPos="77.59" arrivalSpeed="11.68" duration="59.00" routeLength="360.11" waitingTime="13.00" waitingCount="1" stopTime="0.00" timeLoss="27.07" rerouteNo="0" devices="tripinfo_37 fcd_37" vType="DEFAULT_VEHTYPE" speedFactor="0.85" vaporized=""/>
    <tripinfo id="17" depart="9.00" departLane="-gneE25_0" departPos="5.10" departSpeed="0.00" departDelay="0.50" arrival="97.00" arrivalLane="gneE12_0" arrivalPos="27.94" arrivalSpeed="6.21" duration="88.00" routeLength="375.87" waitingTime="34.00" waitingCount="2" stopTime="0.00" timeLoss="55.76" rerouteNo="0" devices="tripinfo_17 fcd_17" vType="DEFAULT_VEHTYPE" speedFactor="0.89" vaporized=""/>
    <tripinfo id="15" depart="15.00" departLane="gneE22_0" departPos="5.10" departSpeed="0.00" departDelay="7.50" arrival="99.00" arrivalLane="gneE19_0" arrivalPos="130.57" arrivalSpeed="8.76" duration="84.00" routeLength="361.49" waitingTime="44.00" waitingCount="1" stopTime="0.00" timeLoss="57.41" rerouteNo="0" devices="tripinfo_15 fcd_15" vType="DEFAULT_VEHTYPE" speedFactor="1.02" vaporized=""/>
    <tripinfo id="23" depart="27.00" departLane="-gneE13_0" departPos="5.10" departSpeed="0.00" departDelay="15.50" arrival="99.00" arrivalLane="-gneE22_0" arrivalPos="41.14" arrivalSpeed="13.04" duration="72.00" routeLength="248.09" waitingTime="28.00" waitingCount="2" stopTime="0.00" timeLoss="56.02" rerouteNo="0" devices="tripinfo_23 fcd_23" vType="DEFAULT_VEHTYPE" speedFactor="1.18" vaporized=""/>
    <tripinfo id="0" depart="0.00" departLane="gneE13_0" departPos="5.10" departSpeed="0.00" departDelay="0.00" arrival="101.00" arrivalLane="-gneE10_0" arrivalPos="40.02" arrivalSpeed="13.77" duration="101.00" routeLength="271.07" waitingTime="67.00" waitingCount="2" stopTime="0.00" timeLoss="81.66" rerouteNo="0" devices="tripinfo_0 fcd_0" vType="DEFAULT_VEHTYPE" speedFactor="1.06" vaporized=""/>
    <tripinfo id="16" depart="8.00" departLane="gneE10_0" departPos="5.10" departSpeed="0.00" departDelay="0.00" arrival="107.00" arrivalLane="gneE9_0" arrivalPos="168.72" arrivalSpeed="3.74" duration="99.00" routeLength="430.79" waitingTime="46.00" waitingCount="2" stopTime="0.00" timeLoss="66.77" rerouteNo="0" devices="tripinfo_16 fcd_16" vType="DEFAULT_VEHTYPE" speedFactor="1.01" vaporized=""/>
    <tripinfo id="80" depart="40.00" departLane="-gneE12_0" departPos="5.10" departSpeed="0.00" departDelay="0.00" arrival="107.00" arrivalLane="gneE14_0" arrivalPos="20.71" arrivalSpeed="11.67" duration="67.00" routeLength="279.63" waitingTime="24.00" waitingCount="2" stopTime="0.00" timeLoss="42.35" rerouteNo="0" devices="tripinfo_80 fcd_80" vType="DEFAULT_VEHTYPE" speedFactor="0.89" vaporized=""/>
    <tripinfo id="67" depart="34.00" departLane="-gneE12_0" departPos="5.10" departSpeed="0.00" departDelay="0.50" arrival="111.00" arrivalLane="gneE10_0" arrivalPos="40.02" arrivalSpeed="12.55" duration="77.00" routeLength="296.98" waitingTime="36.00" waitingCount="2" stopTime="0.00" timeLoss="53.72" rerouteNo="0" devices="tripinfo_67 fcd_67" vType="DEFAULT_VEHTYPE" speedFactor="1.01" vaporized=""/>
    <tripinfo id="12" depart="6.00" departLane="gneE28_0" departPos="5.10" departSpeed="0.00" departDelay="0.00" arrival="112.00" arrivalLane="-gneE25_0" arrivalPos="70.98" arrivalSpeed="5.53" duration="106.00" routeLength="350.08" waitingTime="53.00" waitingCount="3" stopTime="0.00" timeLoss="75.82" rerouteNo="0" devices="tripinfo_12 fcd_12" vType="DEFAULT_VEHTYPE" speedFactor="0.88" vaporized=""/>
    <tripinfo id="40" depart="20.00" departLane="gneE10_0" departPos="5.10" departSpeed="0.00" departDelay="0.00" arrival="116.00" arrivalLane="-gneE19_0" arrivalPos="130.57" arrivalSpeed="4.11" duration="96.00" routeLength="355.35" waitingTime="42.00" waitingCount="2" stopTime="0.00" timeLoss="70.41" rerouteNo="0" devices="tripinfo_40 fcd_40" vType="DEFAULT_VEHTYPE" speedFactor="1.02" vaporized=""/>
    <tripinfo id="52" depart="26.00" departLane="-gneE20_0" departPos="5.10" departSpeed="0.00" departDelay="0.00" arrival="116.00" arrivalLane="gneE15_0" arrivalPos="83.62" arrivalSpeed="14.26" duration="90.00" routeLength="281.86" waitingTime="53.00" waitingCount="2" stopTime="0.00" timeLoss="69.11" rerouteNo="0" devices="tripinfo_52 fcd_52" vType="DEFAULT_VEHTYPE" speedFactor="1.04" vaporized=""/>
    <tripinfo id="47" depart="24.00" departLane="-gneE11_0" departPos="5.10" departSpeed="0.00" departDelay="0.50" arrival="118.00" arrivalLane="-gneE27_0" arrivalPos="77.59" arrivalSpeed="13.22" duration="94.00" routeLength="416.69" waitingTime="40.00" waitingCount="2" stopTime="0.00" timeLoss="62.77" rerouteNo="0" devices="tripinfo_47 fcd_47" vType="DEFAULT_VEHTYPE" speedFactor="1.02" vaporized=""/>
    <tripinfo id="19" depart="10.00" departLane="gneE23_0" departPos="5.10" departSpeed="0.00" departDelay="0.50" arrival="123.00" arrivalLane="gneE13_0" arrivalPos="162.05" arrivalSpeed="10.90" duration="113.00" routeLength="500.00" waitingTime="45.00" waitingCount="2" stopTime="0.00" timeLoss="68.53" rerouteNo="0" devices="tripinfo_19 fcd_19" vType="DEFAULT_VEHTYPE" speedFactor="0.87" vaporized=""/>
    <tripinfo id="75" depart="38.00" departLane="gneE9_0" departPos="5.10" departSpeed="0.00" departDelay="0.50" arrival="123.00" arrivalLane="gneE15_0" arrivalPos="83.62" arrivalSpeed="15.15" duration="85.00" routeLength="393.77" waitingTime="40.00" waitingCount="1" stopTime="0.00" timeLoss="58.79" rerouteNo="0" devices="tripinfo_75 fcd_75" vType="DEFAULT_VEHTYPE" speedFactor="1.12" vaporized=""/>
    <tripinfo id="89" depart="45.00" departLane="-gneE26_0" departPos="5.10" departSpeed="0.00" departDelay="0.50" arrival="123.00" arrivalLane="gneE10_0" arrivalPos="40.02" arrivalSpeed="13.65" duration="78.00" routeLength="317.66" waitingTime="35.00" waitingCount="1" stopTime="0.00" timeLoss="57.22" rerouteNo="0" devices="tripinfo_89 fcd_89" vType="DEFAULT_VEHTYPE" speedFactor="1.18" vaporized=""/>
    <tripinfo id="58" depart="29.00" departLane="-gneE20_0" departPos="5.10" departSpeed="0.00" departDelay="0.00" arrival="127.00" arrivalLane="gneE15_0" arrivalPos="83.62" arrivalSpeed="13.99" duration="98.00" routeLength="281.86" waitingTime="56.00" waitingCount="3" stopTime="0.00" timeLoss="76.38" rerouteNo="0" devices="tripinfo_58 fcd_58" vType="DEFAULT_VEHTYPE" speedFactor="1.03" vaporized=""/>
    <tripinfo id="3" depart="2.00" departLane="gneE25_0" departPos="5.10" departSpeed="0.00" departDelay="0.50" arrival="132.00" arrivalLane="-gneE12_0" arrivalPos="27.94" arrivalSpeed="13.27" duration="130.00" routeLength="383.52" waitingTime="73.00" waitingCount="2" stopTime="0.00" timeLoss="101.98" rerouteNo="0" devices="tripinfo_3 fcd_3" vType="DEFAULT_VEHTYPE" speedFactor="1.03" vaporized=""/>
    <tripinfo id="49" depart="30.00" departLane="gneE9_0" departPos="5.10" departSpeed="0.00" departDelay="5.50" arrival="149.00" arrivalLane="gneE25_0" arrivalPos="70.98" arrivalSpeed="9.66" duration="119.00" routeLength="386.29" waitingTime="65.00" waitingCount="2" stopTime="0.00" timeLoss="88.78" rerouteNo="0" devices="tripinfo_49 fcd_49" vType="DEFAULT_VEHTYPE" speedFactor="0.94" vaporized=""/>
    <tripinfo id="88" depart="44.00" departLane="-gneE12_0" departPos="5.10" departSpeed="0.00" departDelay="0.00" arrival="151.00" arrivalLane="-gneE28_0" arrivalPos="71.89" arrivalSpeed="11.68" duration="107.00" routeLength="533.76" waitingTime="33.00" waitingCount="3" stopTime="0.00" timeLoss="61.52" rerouteNo="0" devices="tripinfo_88 fcd_88" vType="DEFAULT_VEHTYPE" speedFactor="0.92" vaporized=""/>
    <tripinfo id="95" depart="51.00" departLane="-gneE26_0" departPos="5.10" departSpeed="0.00" departDelay="3.50" arrival="152.00" arrivalLane="-gneE22_0" arrivalPos="41.14" arrivalSpeed="13.02" duration="101.00" routeLength="535.76" waitingTime="33.00" waitingCount="1" stopTime="0.00" timeLoss="62.95" rerouteNo="0" devices="tripinfo_95 fcd_95" vType="DEFAULT_VEHTYPE" speedFactor="1.06" vaporized=""/>
    <tripinfo id="71" depart="36.00" departLane="-gneE19_0" departPos="5.10" departSpeed="0.00" departDelay="0.50" arrival="153.00" arrivalLane="gneE26_0" arrivalPos="97.15" arrivalSpeed="12.24" duration="117.00" routeLength="468.34" waitingTime="53.00" waitingCount="2" stopTime="0.00" timeLoss="79.23" rerouteNo="0" devices="tripinfo_71 fcd_71" vType="DEFAULT_VEHTYPE" speedFactor="0.92" vaporized=""/>
    <tripinfo id="93" depart="47.00" departLane="gneE23_0" departPos="5.10" departSpeed="0.00" departDelay="0.50" arrival="154.00" arrivalLane="-gneE19_0" arrivalPos="130.57" arrivalSpeed="14.22" duration="107.00" routeLength="300.75" waitingTime="71.00" waitingCount="2" stopTime="0.00" timeLoss="86.01" rerouteNo="0" devices="tripinfo_93 fcd_93" vType="DEFAULT_VEHTYPE" speedFactor="1.10" vaporized=""/>
    <tripinfo id="46" depart="24.00" departLane="gneE19_0" departPos="5.10" departSpeed="0.00" departDelay="1.00" arrival="155.00" arrivalLane="-gneE28_0" arrivalPos="71.89" arrivalSpeed="14.60" duration="131.00" routeLength="469.90" waitingTime="60.00" waitingCount="6" stopTime="0.00" timeLoss="97.14" rerouteNo="0" devices="tripinfo_46 fcd_46" vType="DEFAULT_VEHTYPE" speedFactor="1.08" vaporized=""/>
    <tripinfo id="82" depart="41.00" departLane="gneE23_0" departPos="5.10" departSpeed="0.00" departDelay="0.00" arrival="155.00" arrivalLane="-gneE12_0" arrivalPos="27.94" arrivalSpeed="10.59" duration="114.00" routeLength="248.06" waitingTime="60.00" waitingCount="2" stopTime="0.00" timeLoss="95.24" rerouteNo="0" devices="tripinfo_82 fcd_82" vType="DEFAULT_VEHTYPE" speedFactor="1.03" vaporized=""/>
    <tripinfo id="68" depart="37.00" departLane="-gneE12_0" departPos="5.10" departSpeed="0.00" departDelay="3.00" arrival="157.00" arrivalLane="gneE20_0" arrivalPos="108.29" arrivalSpeed="13.87" duration="120.00" routeLength="487.86" waitingTime="60.00" waitingCount="3" stopTime="0.00" timeLoss="83.65" rerouteNo="0" devices="tripinfo_68 fcd_68" vType="DEFAULT_VEHTYPE" speedFactor="1.02" vaporized=""/>
    <tripinfo id="22" depart="11.00" departLane="-gneE12_0" departPos="5.10" departSpeed="0.00" departDelay="0.00" arrival="165.00" arrivalLane="-gneE18_0" arrivalPos="45.54" arrivalSpeed="12.28" duration="154.00" routeLength="553.41" waitingTime="82.00" waitingCount="3" stopTime="0.00" timeLoss="107.52" rerouteNo="0" devices="tripinfo_22 fcd_22" vType="DEFAULT_VEHTYPE" speedFactor="0.93" vaporized=""/>
    <tripinfo id="7" depart="4.00" departLane="gneE13_0" departPos="5.10" departSpeed="0.00" departDelay="0.50" arrival="189.00" arrivalLane="gneE12_0" arrivalPos="27.94" arrivalSpeed="4.84" duration="185.00" routeLength="430.95" waitingTime="121.00" waitingCount="5" stopTime="0.00" timeLoss="154.44" rerouteNo="0" devices="tripinfo_7 fcd_7" vType="DEFAULT_VEHTYPE" speedFactor="1.09" vaporized=""/>
    <tripinfo id="50" depart="25.00" departLane="-gneE10_0" departPos="5.10" departSpeed="0.00" departDelay="0.00" arrival="189.00" arrivalLane="gneE19_0" arrivalPos="130.57" arrivalSpeed="5.82" duration="164.00" routeLength="592.49" waitingTime="83.00" waitingCount="4" stopTime="0.00" timeLoss="113.52" rerouteNo="0" devices="tripinfo_50 fcd_50" vType="DEFAULT_VEHTYPE" speedFactor="0.88" vaporized=""/>
    <tripinfo id="73" depart="56.00" departLane="gneE10_0" departPos="5.10" departSpeed="0.00" departDelay="19.50" arrival="191.00" arrivalLane="gneE19_0" arrivalPos="130.57" arrivalSpeed="7.28" duration="135.00" routeLength="500.69" waitingTime="66.00" waitingCount="3" stopTime="0.00" timeLoss="99.42" rerouteNo="0" devices="tripinfo_73 fcd_73" vType="DEFAULT_VEHTYPE" speedFactor="1.06" vaporized=""/>
    <tripinfo id="70" depart="35.00" departLane="-gneE28_0" departPos="5.10" departSpeed="0.00" departDelay="0.00" arrival="192.00" arrivalLane="gneE12_0" arrivalPos="27.94" arrivalSpeed="8.04" duration="157.00" routeLength="511.89" waitingTime="75.00" waitingCount="4" stopTime="0.00" timeLoss="111.74" rerouteNo="0" devices="tripinfo_70 fcd_70" vType="DEFAULT_VEHTYPE" speedFactor="0.89" vaporized=""/>
    <tripinfo id="24" depart="12.00" departLane="gneE13_0" departPos="5.10" departSpeed="0.00" departDelay="0.00" arrival="193.00" arrivalLane="-gneE25_0" arrivalPos="70.98" arrivalSpeed="5.71" duration="181.00" routeLength="643.18" waitingTime="80.00" waitingCount="3" stopTime="0.00" timeLoss="132.37" rerouteNo="0" devices="tripinfo_24 fcd_24" vType="DEFAULT_VEHTYPE" speedFactor="1.01" vaporized=""/>
    <tripinfo id="92" depart="48.00" departLane="-gneE26_0" departPos="5.10" departSpeed="0.00" departDelay="2.00" arrival="195.00" arrivalLane="-gneE25_0" arrivalPos="70.98" arrivalSpeed="12.84" duration="147.00" routeLength="553.67" waitingTime="78.00" waitingCount="3" stopTime="0.00" timeLoss="102.70" rerouteNo="0" devices="tripinfo_92 fcd_92" vType="DEFAULT_VEHTYPE" speedFactor="0.94" vaporized=""/>
    <tripinfo id="100" depart="0.00" departLane="-gneE13_0" departPos="5.10" departSpeed="0.00" departDelay="0.00" arrival="198.00" arrivalLane="gneE14_0" arrivalPos="20.71" arrivalSpeed="12.59" duration="198.00" routeLength="450.99" waitingTime="129.00" waitingCount="4" stopTime="0.00" timeLoss="161.15" rerouteNo="4" devices="tripinfo_100 fcd_100" vType="DEFAULT_VEHTYPE" speedFactor="0.94" vaporized=""/>
    <tripinfo id="101" depart="3.00" departLane="-gneE13_0" departPos="5.10" departSpeed="0.00" departDelay="1.33" arrival="200.00" arrivalLane="gneE14_0" arrivalPos="20.71" arrivalSpeed="10.68" duration="197.00" routeLength="450.99" waitingTime="122.00" waitingCount="4" stopTime="0.00" timeLoss="155.60" rerouteNo="4" devices="tripinfo_101 fcd_101" vType="DEFAULT_VEHTYPE" speedFactor="0.83" vaporized=""/>
    <tripinfo id="102" depart="6.00" departLane="-gneE13_0" departPos="5.10" departSpeed="0.00" departDelay="2.67" arrival="202.00" arrivalLane="gneE14_0" arrivalPos="20.71" arrivalSpeed="11.22" duration="196.00" routeLength="450.99" waitingTime="119.00" waitingCount="4" stopTime="0.00" timeLoss="155.16" rerouteNo="4" devices="tripinfo_102 fcd_102" vType="DEFAULT_VEHTYPE" speedFactor="0.86" vaporized=""/>
    <tripinfo id="103" depart="9.00" departLane="-gneE13_0" departPos="5.10" departSpeed="0.00" departDelay="4.00" arrival="204.00" arrivalLane="gneE14_0" arrivalPos="20.71" arrivalSpeed="13.56" duration="195.00" routeLength="450.99" waitingTime="118.00" waitingCount="4" stopTime="0.00" timeLoss="159.04" rerouteNo="4" devices="tripinfo_103 fcd_103" vType="DEFAULT_VEHTYPE" speedFactor="0.99" vaporized=""/>
    <tripinfo id="76" depart="44.00" departLane="-gneE27_0" departPos="5.10" departSpeed="0.00" departDelay="6.00" arrival="237.00" arrivalLane="gneE11_0" arrivalPos="159.77" arrivalSpeed="6.11" duration="193.00" routeLength="558.00" waitingTime="99.00" waitingCount="4" stopTime="0.00" timeLoss="152.96" rerouteNo="0" devices="tripinfo_76 fcd_76" vType="DEFAULT_VEHTYPE" speedFactor="1.10" vaporized=""/>
    <tripinfo id="51" depart="26.00" departLane="gneE14_0" departPos="5.10" departSpeed="0.00" departDelay="0.50" arrival="239.00" arrivalLane="gneE12_0" arrivalPos="27.94" arrivalSpeed="11.65" duration="213.00" routeLength="714.84" waitingTime="108.00" waitingCount="5" stopTime="0.00" timeLoss="151.47" rerouteNo="0" devices="tripinfo_51 fcd_51" vType="DEFAULT_VEHTYPE" speedFactor="0.91" vaporized=""/>
    <tripinfo id="61" depart="31.00" departLane="gneE19_0" departPos="5.10" departSpeed="0.00" departDelay="0.50" arrival="239.00" arrivalLane="gneE11_0" arrivalPos="159.77" arrivalSpeed="7.82" duration="208.00" routeLength="479.71" waitingTime="132.00" waitingCount="5" stopTime="0.00" timeLoss="173.16" rerouteNo="0" devices="tripinfo_61 fcd_61" vType="DEFAULT_VEHTYPE" speedFactor="1.03" vaporized=""/>
    <tripinfo id="99" depart="60.00" departLane="gneE9_0" departPos="5.10" departSpeed="0.00" departDelay="10.50" arrival="240.00" arrivalLane="gneE25_0" arrivalPos="70.98" arrivalSpeed="7.93" duration="180.00" routeLength="386.29" waitingTime="110.00" waitingCount="4" stopTime="0.00" timeLoss="151.59" rerouteNo="0" devices="tripinfo_99 fcd_99" vType="DEFAULT_VEHTYPE" speedFactor="1.01" vaporized=""/>
    <tripinfo id="78" depart="39.00" departLane="-gneE23_0" departPos="5.10" departSpeed="0.00" departDelay="0.00" arrival="242.00" arrivalLane="gneE13_0" arrivalPos="162.05" arrivalSpeed="8.58" duration="203.00" routeLength="431.33" waitingTime="140.00" waitingCount="4" stopTime="0.00" timeLoss="168.61" rerouteNo="0" devices="tripinfo_78 fcd_78" vType="DEFAULT_VEHTYPE" speedFactor="0.97" vaporized=""/>
    <tripinfo id="60" depart="33.00" departLane="gneE18_0" departPos="5.10" departSpeed="0.00" departDelay="3.00" arrival="246.00" arrivalLane="gneE12_0" arrivalPos="27.94" arrivalSpeed="12.58" duration="213.00" routeLength="572.65" waitingTime="121.00" waitingCount="5" stopTime="0.00" timeLoss="169.00" rerouteNo="0" devices="tripinfo_60 fcd_60" vType="DEFAULT_VEHTYPE" speedFactor="1.01" vaporized=""/>
    <tripinfo id="62" depart="31.00" departLane="-gneE10_0" departPos="5.10" departSpeed="0.00" departDelay="0.00" arrival="246.00" arrivalLane="-gneE23_0" arrivalPos="44.83" arrivalSpeed="13.03" duration="215.00" routeLength="542.65" waitingTime="134.00" waitingCount="4" stopTime="0.00" timeLoss="172.20" rerouteNo="0" devices="tripinfo_62 fcd_62" vType="DEFAULT_VEHTYPE" speedFactor="1.00" vaporized=""/>
    <tripinfo id="96" depart="48.00" departLane="-gneE19_0" departPos="5.10" departSpeed="0.00" departDelay="0.00" arrival="250.00" arrivalLane="gneE27_0" arrivalPos="77.59" arrivalSpeed="4.33" duration="202.00" routeLength="261.87" waitingTime="163.00" waitingCount="2" stopTime="0.00" timeLoss="184.91" rerouteNo="0" devices="tripinfo_96 fcd_96" vType="DEFAULT_VEHTYPE" speedFactor="1.15" vaporized=""/>
    <tripinfo id="25" depart="13.00" departLane="-gneE25_0" departPos="5.10" departSpeed="0.00" departDelay="0.50" arrival="253.00" arrivalLane="-gneE18_0" arrivalPos="45.54" arrivalSpeed="14.70" duration="240.00" routeLength="800.38" waitingTime="127.00" waitingCount="5" stopTime="0.00" timeLoss="187.37" rerouteNo="0" devices="tripinfo_25 fcd_25" vType="DEFAULT_VEHTYPE" speedFactor="1.17" vaporized=""/>
    <tripinfo id="42" depart="21.00" departLane="-gneE25_0" departPos="5.10" departSpeed="0.00" departDelay="0.00" arrival="257.00" arrivalLane="-gneE18_0" arrivalPos="45.54" arrivalSpeed="13.40" duration="236.00" routeLength="800.38" waitingTime="110.00" waitingCount="5" stopTime="0.00" timeLoss="173.84" rerouteNo="0" devices="tripinfo_42 fcd_42" vType="DEFAULT_VEHTYPE" speedFactor="1.00" vaporized=""/>
    <tripinfo id="72" depart="36.00" departLane="-gneE26_0" departPos="5.10" departSpeed="0.00" departDelay="0.00" arrival="261.00" arrivalLane="-gneE18_0" arrivalPos="45.54" arrivalSpeed="14.48" duration="225.00" routeLength="685.89" waitingTime="129.00" waitingCount="4" stopTime="0.00" timeLoss="177.92" rerouteNo="0" devices="tripinfo_72 fcd_72" vType="DEFAULT_VEHTYPE" speedFactor="1.09" vaporized=""/>
    <tripinfo id="104" depart="13.00" departLane="-gneE13_0" departPos="5.10" departSpeed="0.00" departDelay="6.33" arrival="286.00" arrivalLane="gneE14_0" arrivalPos="20.71" arrivalSpeed="11.74" duration="273.00" routeLength="450.99" waitingTime="196.00" waitingCount="5" stopTime="0.00" timeLoss="236.33" rerouteNo="4" devices="tripinfo_104 fcd_104" vType="DEFAULT_VEHTYPE" speedFactor="0.94" vaporized=""/>