<?xml version="1.0" encoding="UTF-8"?>

<!-- generated on 2022-03-22 18:39:48 by Eclipse SUMO GUI Version 1.12.0
<configuration xmlns:xsi="http://www.w3.org/2001/XMLSchema-instance" xsi:noNamespaceSchemaLocation="http://sumo.dlr.de/xsd/sumoConfiguration.xsd">

    <input>
        <net-file value="./configurations/simple_grid1.net.xml"/>
        <route-files value="./configurations/str_sumo.rou.xml"/>
    </input>

    <output>
        <netstate-dump value="./configurations/test_dump.xml"/>
        <fcd-output value="./configurations/testTrace.xml"/>
        <tripinfo-output value="./configurations/trips.trips.xml"/>
    </output>

    <time>
        <begin value="0"/>
        <end value="200000"/>
    </time>

    <traci_server>
        <remote-port value="50217"/>
    </traci_server>

</configuration>
-->

<tripinfos xmlns:xsi="http://www.w3.org/2001/XMLSchema-instance" xsi:noNamespaceSchemaLocation="http://sumo.dlr.de/xsd/tripinfo_file.xsd">
    <tripinfo id="1" depart="25.00" departLane="-gneE20_0" departPos="5.10" departSpeed="0.00" departDelay="0.00" arrival="52.00" arrivalLane="-gneE18_0" arrivalPos="45.54" arrivalSpeed="13.23" duration="27.00" routeLength="295.55" waitingTime="0.00" waitingCount="0" stopTime="0.00" timeLoss="7.27" rerouteNo="0" devices="tripinfo_1 fcd_1" vType="DEFAULT_VEHTYPE" speedFactor="1.08" vaporized=""/>
    <tripinfo id="0" depart="0.00" departLane="gneE13_0" departPos="5.10" departSpeed="0.00" departDelay="0.00" arrival="100.00" arrivalLane="-gneE10_0" arrivalPos="40.02" arrivalSpeed="14.18" duration="100.00" routeLength="271.07" waitingTime="65.00" waitingCount="2" stopTime="0.00" timeLoss="80.22" rerouteNo="0" devices="tripinfo_0 fcd_0" vType="DEFAULT_VEHTYPE" speedFactor="1.06" vaporized=""/>
    <tripinfo id="4" depart="34.00" departLane="-gneE18_0" departPos="5.10" departSpeed="0.00" departDelay="0.67" arrival="219.00" arrivalLane="gneE22_0" arrivalPos="41.14" arrivalSpeed="14.24" duration="185.00" routeLength="1156.86" waitingTime="63.00" waitingCount="3" stopTime="0.00" timeLoss="98.92" rerouteNo="13" devices="tripinfo_4 fcd_4" vType="DEFAULT_VEHTYPE" speedFactor="1.03" vaporized=""/>
    <tripinfo id="3" depart="17.00" departLane="-gneE18_0" departPos="5.10" departSpeed="0.00" departDelay="0.33" arrival="246.00" arrivalLane="gneE26_0" arrivalPos="97.15" arrivalSpeed="13.61" duration="229.00" routeLength="1057.97" waitingTime="111.00" waitingCount="4" stopTime="0.00" timeLoss="146.98" rerouteNo="11" devices="tripinfo_3 fcd_3" vType="DEFAULT_VEHTYPE" speedFactor="1.01" vaporized=""/>
    <tripinfo id="2" depart="0.00" departLane="-gneE18_0" departPos="5.10" departSpeed="0.00" departDelay="0.00" arrival="316.00" arrivalLane="gneE20_0" arrivalPos="108.29" arrivalSpeed="12.02" duration="316.00" routeLength="1418.01" waitingTime="159.00" waitingCount="5" stopTime="0.00" timeLoss="201.86" rerouteNo="13" devices="tripinfo_2 fcd_2" vType="DEFAULT_VEHTYPE" speedFactor="0.94" vaporized=""/>
