<?xml version="1.0" encoding="UTF-8"?>

<!-- generated on 2022-03-28 20:42:55 by Eclipse SUMO GUI Version 1.12.0
<configuration xmlns:xsi="http://www.w3.org/2001/XMLSchema-instance" xsi:noNamespaceSchemaLocation="http://sumo.dlr.de/xsd/sumoConfiguration.xsd">

    <input>
        <net-file value="./configurations/simple_grid1.net.xml"/>
        <route-files value="./configurations/str_sumo.rou.xml"/>
    </input>

    <output>
        <netstate-dump value="./configurations/test_dump.xml"/>
        <fcd-output value="./configurations/testTrace.xml"/>
        <tripinfo-output value="./configurations/trips.trips.xml"/>
    </output>

    <time>
        <begin value="0"/>
        <end value="200000"/>
    </time>

    <traci_server>
        <remote-port value="58412"/>
    </traci_server>

</configuration>
-->

<tripinfos xmlns:xsi="http://www.w3.org/2001/XMLSchema-instance" xsi:noNamespaceSchemaLocation="http://sumo.dlr.de/xsd/tripinfo_file.xsd">
    <tripinfo id="2" depart="2.00" departLane="gneE18_0" departPos="5.10" departSpeed="0.00" departDelay="0.76" arrival="8.00" arrivalLane="gneE18_0" arrivalPos="45.54" arrivalSpeed="12.96" duration="6.00" routeLength="40.44" waitingTime="0.00" waitingCount="0" stopTime="0.00" timeLoss="2.87" rerouteNo="0" devices="tripinfo_2 fcd_2" vType="DEFAULT_VEHTYPE" speedFactor="1.03" vaporized=""/>
    <tripinfo id="13" depart="11.00" departLane="-gneE12_0" departPos="5.10" departSpeed="0.00" departDelay="2.94" arrival="16.00" arrivalLane="-gneE12_0" arrivalPos="27.94" arrivalSpeed="11.16" duration="5.00" routeLength="22.84" waitingTime="0.00" waitingCount="0" stopTime="0.00" timeLoss="2.24" rerouteNo="0" devices="tripinfo_13 fcd_13" vType="DEFAULT_VEHTYPE" speedFactor="0.87" vaporized=""/>
    <tripinfo id="14" depart="9.00" departLane="gneE23_0" departPos="5.10" departSpeed="0.00" departDelay="0.32" arrival="19.00" arrivalLane="gneE14_0" arrivalPos="20.71" arrivalSpeed="12.85" duration="10.00" routeLength="74.77" waitingTime="0.00" waitingCount="0" stopTime="0.00" timeLoss="3.48" rerouteNo="0" devices="tripinfo_14 fcd_14" vType="DEFAULT_VEHTYPE" speedFactor="0.95" vaporized=""/>
    <tripinfo id="92" depart="8.00" departLane="-gneE13_0" departPos="5.10" departSpeed="0.00" departDelay="0.14" arrival="25.00" arrivalLane="-gneE13_0" arrivalPos="162.05" arrivalSpeed="10.76" duration="17.00" routeLength="156.95" waitingTime="0.00" waitingCount="0" stopTime="0.00" timeLoss="3.03" rerouteNo="0" devices="tripinfo_92 fcd_92" vType="DEFAULT_VEHTYPE" speedFactor="0.83" vaporized=""/>
    <tripinfo id="1" depart="1.00" departLane="-gneE20_0" departPos="5.10" departSpeed="0.00" departDelay="0.38" arrival="29.00" arrivalLane="-gneE18_0" arrivalPos="45.54" arrivalSpeed="12.93" duration="28.00" routeLength="295.55" waitingTime="0.00" waitingCount="0" stopTime="0.00" timeLoss="6.67" rerouteNo="0" devices="tripinfo_1 fcd_1" vType="DEFAULT_VEHTYPE" speedFactor="1.01" vaporized=""/>
    <tripinfo id="10" depart="9.00" departLane="gneE22_0" departPos="5.10" departSpeed="0.00" departDelay="2.80" arrival="31.00" arrivalLane="gneE18_0" arrivalPos="45.54" arrivalSpeed="15.69" duration="22.00" routeLength="224.13" waitingTime="0.00" waitingCount="0" stopTime="0.00" timeLoss="7.66" rerouteNo="0" devices="tripinfo_10 fcd_10" vType="DEFAULT_VEHTYPE" speedFactor="1.16" vaporized=""/>
    <tripinfo id="112" depart="23.00" departLane="gneE26_0" departPos="5.10" departSpeed="0.00" departDelay="0.86" arrival="34.00" arrivalLane="gneE26_0" arrivalPos="97.15" arrivalSpeed="12.67" duration="11.00" routeLength="92.05" waitingTime="0.00" waitingCount="0" stopTime="0.00" timeLoss="3.05" rerouteNo="0" devices="tripinfo_112 fcd_112" vType="DEFAULT_VEHTYPE" speedFactor="0.91" vaporized=""/>
    <tripinfo id="39" depart="25.00" departLane="-gneE19_0" departPos="5.10" departSpeed="0.00" departDelay="0.82" arrival="37.00" arrivalLane="-gneE19_0" arrivalPos="130.57" arrivalSpeed="14.14" duration="12.00" routeLength="125.47" waitingTime="0.00" waitingCount="0" stopTime="0.00" timeLoss="3.31" rerouteNo="0" devices="tripinfo_39 fcd_39" vType="DEFAULT_VEHTYPE" speedFactor="1.06" vaporized=""/>
    <tripinfo id="89" depart="7.00" departLane="-gneE10_0" departPos="5.10" departSpeed="0.00" departDelay="1.29" arrival="38.00" arrivalLane="gneE26_0" arrivalPos="97.15" arrivalSpeed="12.80" duration="31.00" routeLength="322.32" waitingTime="0.00" waitingCount="0" stopTime="0.00" timeLoss="5.70" rerouteNo="2" devices="tripinfo_89 fcd_89" vType="DEFAULT_VEHTYPE" speedFactor="0.94" vaporized=""/>
    <tripinfo id="94" depart="10.00" departLane="-gneE10_0" departPos="5.10" departSpeed="0.00" departDelay="0.71" arrival="40.00" arrivalLane="gneE26_0" arrivalPos="97.15" arrivalSpeed="15.07" duration="30.00" routeLength="322.32" waitingTime="0.00" waitingCount="0" stopTime="0.00" timeLoss="8.48" rerouteNo="2" devices="tripinfo_94 fcd_94" vType="DEFAULT_VEHTYPE" speedFactor="1.13" vaporized=""/>
    <tripinfo id="106" depart="18.00" departLane="-gneE10_0" departPos="5.10" departSpeed="0.00" departDelay="0.14" arrival="48.00" arrivalLane="gneE26_0" arrivalPos="97.15" arrivalSpeed="13.72" duration="30.00" routeLength="322.32" waitingTime="0.00" waitingCount="0" stopTime="0.00" timeLoss="5.64" rerouteNo="2" devices="tripinfo_106 fcd_106" vType="DEFAULT_VEHTYPE" speedFactor="1.00" vaporized=""/>
    <tripinfo id="104" depart="17.00" departLane="-gneE22_0" departPos="5.10" departSpeed="0.00" departDelay="0.57" arrival="52.00" arrivalLane="-gneE22_0" arrivalPos="41.14" arrivalSpeed="6.34" duration="35.00" routeLength="36.04" waitingTime="24.00" waitingCount="1" stopTime="0.00" timeLoss="31.50" rerouteNo="0" devices="tripinfo_104 fcd_104" vType="DEFAULT_VEHTYPE" speedFactor="0.85" vaporized=""/>
    <tripinfo id="34" depart="22.00" departLane="-gneE22_0" departPos="5.10" departSpeed="0.00" departDelay="0.92" arrival="54.00" arrivalLane="-gneE22_0" arrivalPos="41.14" arrivalSpeed="7.78" duration="32.00" routeLength="36.04" waitingTime="21.00" waitingCount="1" stopTime="0.00" timeLoss="28.90" rerouteNo="0" devices="tripinfo_34 fcd_34" vType="DEFAULT_VEHTYPE" speedFactor="0.94" vaporized=""/>
    <tripinfo id="9" depart="6.00" departLane="gneE22_0" departPos="5.10" departSpeed="0.00" departDelay="0.42" arrival="55.00" arrivalLane="-gneE10_0" arrivalPos="40.02" arrivalSpeed="10.76" duration="49.00" routeLength="262.95" waitingTime="15.00" waitingCount="2" stopTime="0.00" timeLoss="27.47" rerouteNo="0" devices="tripinfo_9 fcd_9" vType="DEFAULT_VEHTYPE" speedFactor="0.94" vaporized=""/>
    <tripinfo id="79" depart="49.00" departLane="-gneE18_0" departPos="5.10" departSpeed="0.00" departDelay="0.02" arrival="56.00" arrivalLane="-gneE18_0" arrivalPos="45.54" arrivalSpeed="10.46" duration="7.00" routeLength="40.44" waitingTime="0.00" waitingCount="0" stopTime="0.00" timeLoss="3.55" rerouteNo="0" devices="tripinfo_79 fcd_79" vType="DEFAULT_VEHTYPE" speedFactor="0.97" vaporized=""/>
    <tripinfo id="21" depart="14.00" departLane="-gneE18_0" departPos="5.10" departSpeed="0.00" departDelay="0.98" arrival="58.00" arrivalLane="-gneE22_0" arrivalPos="41.14" arrivalSpeed="10.48" duration="44.00" routeLength="223.93" waitingTime="15.00" waitingCount="1" stopTime="0.00" timeLoss="28.11" rerouteNo="0" devices="tripinfo_21 fcd_21" vType="DEFAULT_VEHTYPE" speedFactor="1.03" vaporized=""/>
    <tripinfo id="44" depart="31.00" departLane="-gneE12_0" departPos="5.10" departSpeed="0.00" departDelay="3.72" arrival="59.00" arrivalLane="-gneE11_0" arrivalPos="159.77" arrivalSpeed="10.67" duration="28.00" routeLength="190.72" waitingTime="0.00" waitingCount="0" stopTime="0.00" timeLoss="12.18" rerouteNo="0" devices="tripinfo_44 fcd_44" vType="DEFAULT_VEHTYPE" speedFactor="0.97" vaporized=""/>
    <tripinfo id="81" depart="0.00" departLane="-gneE28_0" departPos="5.10" departSpeed="0.00" departDelay="0.00" arrival="60.00" arrivalLane="gneE26_0" arrivalPos="97.15" arrivalSpeed="12.53" duration="60.00" routeLength="274.94" waitingTime="28.00" waitingCount="1" stopTime="0.00" timeLoss="37.53" rerouteNo="3" devices="tripinfo_81 fcd_81" vType="DEFAULT_VEHTYPE" speedFactor="0.94" vaporized=""/>
    <tripinfo id="4" depart="3.00" departLane="-gneE26_0" departPos="5.10" departSpeed="0.00" departDelay="0.52" arrival="60.00" arrivalLane="-gneE10_0" arrivalPos="40.02" arrivalSpeed="12.97" duration="57.00" routeLength="370.27" waitingTime="11.00" waitingCount="1" stopTime="0.00" timeLoss="26.36" rerouteNo="0" devices="tripinfo_4 fcd_4" vType="DEFAULT_VEHTYPE" speedFactor="0.94" vaporized=""/>
    <tripinfo id="105" depart="18.00" departLane="-gneE28_0" departPos="5.10" departSpeed="0.00" departDelay="0.86" arrival="66.00" arrivalLane="gneE26_0" arrivalPos="97.15" arrivalSpeed="13.00" duration="48.00" routeLength="274.94" waitingTime="16.00" waitingCount="1" stopTime="0.00" timeLoss="26.98" rerouteNo="3" devices="tripinfo_105 fcd_105" vType="DEFAULT_VEHTYPE" speedFactor="1.02" vaporized=""/>
    <tripinfo id="55" depart="35.00" departLane="gneE25_0" departPos="5.10" departSpeed="0.00" departDelay="0.90" arrival="69.00" arrivalLane="-gneE19_0" arrivalPos="130.57" arrivalSpeed="6.20" duration="34.00" routeLength="206.12" waitingTime="4.00" waitingCount="1" stopTime="0.00" timeLoss="17.92" rerouteNo="0" devices="tripinfo_55 fcd_55" vType="DEFAULT_VEHTYPE" speedFactor="0.95" vaporized=""/>
    <tripinfo id="16" depart="10.00" departLane="gneE10_0" departPos="5.10" departSpeed="0.00" departDelay="0.08" arrival="74.00" arrivalLane="gneE9_0" arrivalPos="168.72" arrivalSpeed="16.20" duration="64.00" routeLength="430.79" waitingTime="21.00" waitingCount="1" stopTime="0.00" timeLoss="35.18" rerouteNo="0" devices="tripinfo_16 fcd_16" vType="DEFAULT_VEHTYPE" speedFactor="1.18" vaporized=""/>
    <tripinfo id="107" depart="19.00" departLane="gneE11_0" departPos="5.10" departSpeed="0.00" departDelay="0.43" arrival="74.00" arrivalLane="gneE26_0" arrivalPos="97.15" arrivalSpeed="12.04" duration="55.00" routeLength="315.47" waitingTime="15.00" waitingCount="1" stopTime="0.00" timeLoss="27.34" rerouteNo="2" devices="tripinfo_107 fcd_107" vType="DEFAULT_VEHTYPE" speedFactor="0.90" vaporized=""/>
    <tripinfo id="120" depart="28.00" departLane="-gneE10_0" departPos="5.10" departSpeed="0.00" departDelay="0.14" arrival="103.00" arrivalLane="gneE26_0" arrivalPos="97.15" arrivalSpeed="15.12" duration="75.00" routeLength="322.32" waitingTime="42.00" waitingCount="1" stopTime="0.00" timeLoss="53.55" rerouteNo="2" devices="tripinfo_120 fcd_120" vType="DEFAULT_VEHTYPE" speedFactor="1.15" vaporized=""/>
    <tripinfo id="121" depart="31.00" departLane="-gneE10_0" departPos="5.10" departSpeed="0.00" departDelay="2.43" arrival="106.00" arrivalLane="gneE26_0" arrivalPos="97.15" arrivalSpeed="13.42" duration="75.00" routeLength="322.32" waitingTime="39.00" waitingCount="1" stopTime="0.00" timeLoss="51.47" rerouteNo="2" devices="tripinfo_121 fcd_121" vType="DEFAULT_VEHTYPE" speedFactor="1.04" vaporized=""/>
    <tripinfo id="15" depart="12.00" departLane="gneE22_0" departPos="5.10" departSpeed="0.00" departDelay="2.70" arrival="107.00" arrivalLane="gneE19_0" arrivalPos="130.57" arrivalSpeed="5.22" duration="95.00" routeLength="361.49" waitingTime="54.00" waitingCount="2" stopTime="0.00" timeLoss="66.44" rerouteNo="0" devices="tripinfo_15 fcd_15" vType="DEFAULT_VEHTYPE" speedFactor="0.93" vaporized=""/>
    <tripinfo id="30" depart="19.00" departLane="gneE9_0" departPos="5.10" departSpeed="0.00" departDelay="0.40" arrival="108.00" arrivalLane="gneE15_0" arrivalPos="83.62" arrivalSpeed="15.42" duration="89.00" routeLength="393.77" waitingTime="47.00" waitingCount="1" stopTime="0.00" timeLoss="63.62" rerouteNo="0" devices="tripinfo_30 fcd_30" vType="DEFAULT_VEHTYPE" speedFactor="1.14" vaporized=""/>
    <tripinfo id="132" depart="37.00" departLane="-gneE10_0" departPos="5.10" departSpeed="0.00" departDelay="0.57" arrival="111.00" arrivalLane="gneE26_0" arrivalPos="97.15" arrivalSpeed="12.04" duration="74.00" routeLength="322.32" waitingTime="33.00" waitingCount="1" stopTime="0.00" timeLoss="47.71" rerouteNo="2" devices="tripinfo_132 fcd_132" vType="DEFAULT_VEHTYPE" speedFactor="0.93" vaporized=""/>
    <tripinfo id="130" depart="60.00" departLane="-gneE9_0" departPos="5.10" departSpeed="0.00" departDelay="25.00" arrival="114.00" arrivalLane="-gneE9_0" arrivalPos="168.72" arrivalSpeed="8.64" duration="54.00" routeLength="163.62" waitingTime="26.00" waitingCount="1" stopTime="0.00" timeLoss="41.78" rerouteNo="0" devices="tripinfo_130 fcd_130" vType="DEFAULT_VEHTYPE" speedFactor="1.01" vaporized=""/>
    <tripinfo id="142" depart="46.00" departLane="-gneE10_0" departPos="5.10" departSpeed="0.00" departDelay="2.43" arrival="118.00" arrivalLane="gneE26_0" arrivalPos="97.15" arrivalSpeed="13.31" duration="72.00" routeLength="322.32" waitingTime="30.00" waitingCount="1" stopTime="0.00" timeLoss="46.38" rerouteNo="2" devices="tripinfo_142 fcd_142" vType="DEFAULT_VEHTYPE" speedFactor="0.96" vaporized=""/>
    <tripinfo id="75" depart="47.00" departLane="gneE9_0" departPos="5.10" departSpeed="0.00" departDelay="0.50" arrival="118.00" arrivalLane="gneE15_0" arrivalPos="83.62" arrivalSpeed="15.00" duration="71.00" routeLength="393.77" waitingTime="24.00" waitingCount="1" stopTime="0.00" timeLoss="44.66" rerouteNo="0" devices="tripinfo_75 fcd_75" vType="DEFAULT_VEHTYPE" speedFactor="1.16" vaporized=""/>
    <tripinfo id="123" depart="41.00" departLane="-gneE11_0" departPos="5.10" departSpeed="0.00" departDelay="11.00" arrival="125.00" arrivalLane="gneE26_0" arrivalPos="97.15" arrivalSpeed="11.74" duration="84.00" routeLength="496.52" waitingTime="21.00" waitingCount="1" stopTime="0.00" timeLoss="42.39" rerouteNo="3" devices="tripinfo_123 fcd_123" vType="DEFAULT_VEHTYPE" speedFactor="0.89" vaporized=""/>
    <tripinfo id="0" depart="0.00" departLane="gneE13_0" departPos="5.10" departSpeed="0.00" departDelay="0.00" arrival="126.00" arrivalLane="-gneE10_0" arrivalPos="40.02" arrivalSpeed="13.82" duration="126.00" routeLength="271.07" waitingTime="76.00" waitingCount="3" stopTime="0.00" timeLoss="106.34" rerouteNo="0" devices="tripinfo_0 fcd_0" vType="DEFAULT_VEHTYPE" speedFactor="1.06" vaporized=""/>
    <tripinfo id="129" depart="35.00" departLane="gneE22_0" departPos="5.10" departSpeed="0.00" departDelay="0.71" arrival="127.00" arrivalLane="gneE26_0" arrivalPos="97.15" arrivalSpeed="12.30" duration="92.00" routeLength="550.35" waitingTime="19.00" waitingCount="1" stopTime="0.00" timeLoss="45.08" rerouteNo="4" devices="tripinfo_129 fcd_129" vType="DEFAULT_VEHTYPE" speedFactor="0.89" vaporized=""/>
    <tripinfo id="12" depart="8.00" departLane="gneE28_0" departPos="5.10" departSpeed="0.00" departDelay="0.56" arrival="128.00" arrivalLane="-gneE25_0" arrivalPos="70.98" arrivalSpeed="4.99" duration="120.00" routeLength="350.08" waitingTime="63.00" waitingCount="3" stopTime="0.00" timeLoss="90.53" rerouteNo="0" devices="tripinfo_12 fcd_12" vType="DEFAULT_VEHTYPE" speedFactor="0.89" vaporized=""/>
    <tripinfo id="134" depart="47.00" departLane="-gneE11_0" departPos="5.10" departSpeed="0.00" departDelay="9.14" arrival="129.00" arrivalLane="gneE26_0" arrivalPos="97.15" arrivalSpeed="12.59" duration="82.00" routeLength="496.52" waitingTime="18.00" waitingCount="1" stopTime="0.00" timeLoss="41.27" rerouteNo="3" devices="tripinfo_134 fcd_134" vType="DEFAULT_VEHTYPE" speedFactor="0.92" vaporized=""/>
    <tripinfo id="49" depart="35.00" departLane="gneE9_0" departPos="5.10" departSpeed="0.00" departDelay="4.62" arrival="147.00" arrivalLane="gneE25_0" arrivalPos="70.98" arrivalSpeed="6.74" duration="112.00" routeLength="386.29" waitingTime="53.00" waitingCount="2" stopTime="0.00" timeLoss="77.89" rerouteNo="0" devices="tripinfo_49 fcd_49" vType="DEFAULT_VEHTYPE" speedFactor="0.83" vaporized=""/>
    <tripinfo id="8" depart="7.00" departLane="-gneE18_0" departPos="5.10" departSpeed="0.00" departDelay="2.04" arrival="148.00" arrivalLane="gneE13_0" arrivalPos="162.05" arrivalSpeed="8.90" duration="141.00" routeLength="298.46" waitingTime="98.00" waitingCount="2" stopTime="0.00" timeLoss="117.28" rerouteNo="0" devices="tripinfo_8 fcd_8" vType="DEFAULT_VEHTYPE" speedFactor="0.93" vaporized=""/>
    <tripinfo id="27" depart="18.00" departLane="gneE13_0" departPos="5.10" departSpeed="0.00" departDelay="1.26" arrival="150.00" arrivalLane="gneE14_0" arrivalPos="20.71" arrivalSpeed="11.40" duration="132.00" routeLength="187.00" waitingTime="100.00" waitingCount="2" stopTime="0.00" timeLoss="119.22" rerouteNo="0" devices="tripinfo_27 fcd_27" vType="DEFAULT_VEHTYPE" speedFactor="1.17" vaporized=""/>
    <tripinfo id="128" depart="34.00" departLane="-gneE12_0" departPos="5.10" departSpeed="0.00" departDelay="0.43" arrival="152.00" arrivalLane="gneE26_0" arrivalPos="97.15" arrivalSpeed="12.95" duration="118.00" routeLength="188.31" waitingTime="91.00" waitingCount="2" stopTime="0.00" timeLoss="103.47" rerouteNo="2" devices="tripinfo_128 fcd_128" vType="DEFAULT_VEHTYPE" speedFactor="0.97" vaporized=""/>
    <tripinfo id="100" depart="14.00" departLane="-gneE19_0" departPos="5.10" departSpeed="0.00" departDelay="0.43" arrival="154.00" arrivalLane="gneE26_0" arrivalPos="97.15" arrivalSpeed="12.65" duration="140.00" routeLength="468.34" waitingTime="84.00" waitingCount="2" stopTime="0.00" timeLoss="103.55" rerouteNo="5" devices="tripinfo_100 fcd_100" vType="DEFAULT_VEHTYPE" speedFactor="0.96" vaporized=""/>
    <tripinfo id="40" depart="26.00" departLane="gneE10_0" departPos="5.10" departSpeed="0.00" departDelay="1.20" arrival="154.00" arrivalLane="-gneE19_0" arrivalPos="130.57" arrivalSpeed="12.52" duration="128.00" routeLength="355.35" waitingTime="82.00" waitingCount="2" stopTime="0.00" timeLoss="101.40" rerouteNo="0" devices="tripinfo_40 fcd_40" vType="DEFAULT_VEHTYPE" speedFactor="0.98" vaporized=""/>
    <tripinfo id="18" depart="18.00" departLane="gneE22_0" departPos="5.10" departSpeed="0.00" departDelay="6.84" arrival="159.00" arrivalLane="gneE14_0" arrivalPos="20.71" arrivalSpeed="9.75" duration="141.00" routeLength="282.54" waitingTime="91.00" waitingCount="2" stopTime="0.00" timeLoss="118.61" rerouteNo="0" devices="tripinfo_18 fcd_18" vType="DEFAULT_VEHTYPE" speedFactor="0.99" vaporized=""/>
    <tripinfo id="145" depart="98.00" departLane="-gneE12_0" departPos="5.10" departSpeed="0.00" departDelay="52.29" arrival="160.00" arrivalLane="gneE26_0" arrivalPos="97.15" arrivalSpeed="12.66" duration="62.00" routeLength="188.31" waitingTime="34.00" waitingCount="1" stopTime="0.00" timeLoss="47.04" rerouteNo="2" devices="tripinfo_145 fcd_145" vType="DEFAULT_VEHTYPE" speedFactor="1.00" vaporized=""/>
    <tripinfo id="96" depart="11.00" departLane="-gneE20_0" departPos="5.10" departSpeed="0.00" departDelay="0.29" arrival="161.00" arrivalLane="gneE26_0" arrivalPos="97.15" arrivalSpeed="15.42" duration="150.00" routeLength="590.62" waitingTime="83.00" waitingCount="3" stopTime="0.00" timeLoss="112.94" rerouteNo="6" devices="tripinfo_96 fcd_96" vType="DEFAULT_VEHTYPE" speedFactor="1.17" vaporized=""/>
    <tripinfo id="22" depart="14.00" departLane="-gneE12_0" departPos="5.10" departSpeed="0.00" departDelay="0.36" arrival="162.00" arrivalLane="-gneE18_0" arrivalPos="45.54" arrivalSpeed="13.40" duration="148.00" routeLength="553.41" waitingTime="79.00" waitingCount="3" stopTime="0.00" timeLoss="109.59" rerouteNo="0" devices="tripinfo_22 fcd_22" vType="DEFAULT_VEHTYPE" speedFactor="1.09" vaporized=""/>
    <tripinfo id="87" depart="5.00" departLane="gneE9_0" departPos="5.10" departSpeed="0.00" departDelay="0.71" arrival="163.00" arrivalLane="gneE26_0" arrivalPos="97.15" arrivalSpeed="14.76" duration="158.00" routeLength="535.78" waitingTime="94.00" waitingCount="2" stopTime="0.00" timeLoss="121.18" rerouteNo="4" devices="tripinfo_87 fcd_87" vType="DEFAULT_VEHTYPE" speedFactor="1.12" vaporized=""/>
    <tripinfo id="43" depart="29.00" departLane="gneE9_0" departPos="5.10" departSpeed="0.00" departDelay="2.34" arrival="164.00" arrivalLane="gneE11_0" arrivalPos="159.77" arrivalSpeed="11.16" duration="135.00" routeLength="374.98" waitingTime="75.00" waitingCount="1" stopTime="0.00" timeLoss="106.11" rerouteNo="0" devices="tripinfo_43 fcd_43" vType="DEFAULT_VEHTYPE" speedFactor="1.00" vaporized=""/>
    <tripinfo id="48" depart="32.00" departLane="gneE9_0" departPos="5.10" departSpeed="0.00" departDelay="2.24" arrival="165.00" arrivalLane="gneE11_0" arrivalPos="159.77" arrivalSpeed="10.42" duration="133.00" routeLength="374.98" waitingTime="75.00" waitingCount="1" stopTime="0.00" timeLoss="104.95" rerouteNo="0" devices="tripinfo_48 fcd_48" vType="DEFAULT_VEHTYPE" speedFactor="1.02" vaporized=""/>
    <tripinfo id="19" depart="12.00" departLane="gneE23_0" departPos="5.10" departSpeed="0.00" departDelay="0.22" arrival="166.00" arrivalLane="gneE13_0" arrivalPos="162.05" arrivalSpeed="9.62" duration="154.00" routeLength="500.00" waitingTime="79.00" waitingCount="3" stopTime="0.00" timeLoss="114.00" rerouteNo="0" devices="tripinfo_19 fcd_19" vType="DEFAULT_VEHTYPE" speedFactor="0.97" vaporized=""/>
    <tripinfo id="41" depart="29.00" departLane="gneE11_0" departPos="5.10" departSpeed="0.00" departDelay="3.58" arrival="166.00" arrivalLane="gneE26_0" arrivalPos="97.15" arrivalSpeed="13.33" duration="137.00" routeLength="315.47" waitingTime="91.00" waitingCount="2" stopTime="0.00" timeLoss="111.87" rerouteNo="0" devices="tripinfo_41 fcd_41" vType="DEFAULT_VEHTYPE" speedFactor="0.98" vaporized=""/>
    <tripinfo id="118" depart="29.00" departLane="gneE10_0" departPos="5.10" departSpeed="0.00" departDelay="2.57" arrival="168.00" arrivalLane="gneE26_0" arrivalPos="97.15" arrivalSpeed="13.77" duration="139.00" routeLength="364.60" waitingTime="88.00" waitingCount="2" stopTime="0.00" timeLoss="111.30" rerouteNo="3" devices="tripinfo_118 fcd_118" vType="DEFAULT_VEHTYPE" speedFactor="1.03" vaporized=""/>
    <tripinfo id="137" depart="40.00" departLane="gneE11_0" departPos="5.10" departSpeed="0.00" departDelay="0.00" arrival="169.00" arrivalLane="gneE26_0" arrivalPos="97.15" arrivalSpeed="15.01" duration="129.00" routeLength="315.47" waitingTime="83.00" waitingCount="2" stopTime="0.00" timeLoss="107.26" rerouteNo="2" devices="tripinfo_137 fcd_137" vType="DEFAULT_VEHTYPE" speedFactor="1.10" vaporized=""/>
    <tripinfo id="67" depart="44.00" departLane="-gneE12_0" departPos="5.10" departSpeed="0.00" departDelay="2.46" arrival="170.00" arrivalLane="gneE10_0" arrivalPos="40.02" arrivalSpeed="13.64" duration="126.00" routeLength="296.98" waitingTime="83.00" waitingCount="2" stopTime="0.00" timeLoss="103.07" rerouteNo="0" devices="tripinfo_67 fcd_67" vType="DEFAULT_VEHTYPE" speedFactor="1.03" vaporized=""/>
    <tripinfo id="72" depart="45.00" departLane="-gneE26_0" departPos="5.10" departSpeed="0.00" departDelay="0.36" arrival="170.00" arrivalLane="-gneE18_0" arrivalPos="45.54" arrivalSpeed="13.33" duration="125.00" routeLength="685.89" waitingTime="49.00" waitingCount="2" stopTime="0.00" timeLoss="74.31" rerouteNo="0" devices="tripinfo_72 fcd_72" vType="DEFAULT_VEHTYPE" speedFactor="1.01" vaporized=""/>
    <tripinfo id="115" depart="25.00" departLane="-gneE23_0" departPos="5.10" departSpeed="0.00" departDelay="0.71" arrival="172.00" arrivalLane="gneE26_0" arrivalPos="97.15" arrivalSpeed="12.57" duration="147.00" routeLength="374.76" waitingTime="89.00" waitingCount="3" stopTime="0.00" timeLoss="117.16" rerouteNo="3" devices="tripinfo_115 fcd_115" vType="DEFAULT_VEHTYPE" speedFactor="0.96" vaporized=""/>
    <tripinfo id="131" depart="37.00" departLane="gneE10_0" departPos="5.10" departSpeed="0.00" departDelay="1.29" arrival="174.00" arrivalLane="gneE26_0" arrivalPos="97.15" arrivalSpeed="14.58" duration="137.00" routeLength="364.60" waitingTime="79.00" waitingCount="3" stopTime="0.00" timeLoss="110.24" rerouteNo="3" devices="tripinfo_131 fcd_131" vType="DEFAULT_VEHTYPE" speedFactor="1.06" vaporized=""/>
    <tripinfo id="117" depart="26.00" departLane="gneE9_0" departPos="5.10" departSpeed="0.00" departDelay="0.29" arrival="177.00" arrivalLane="gneE26_0" arrivalPos="97.15" arrivalSpeed="13.16" duration="151.00" routeLength="535.78" waitingTime="76.00" waitingCount="1" stopTime="0.00" timeLoss="109.64" rerouteNo="4" devices="tripinfo_117 fcd_117" vType="DEFAULT_VEHTYPE" speedFactor="1.01" vaporized=""/>
    <tripinfo id="136" depart="40.00" departLane="gneE9_0" departPos="5.10" departSpeed="0.00" departDelay="0.71" arrival="182.00" arrivalLane="gneE26_0" arrivalPos="97.15" arrivalSpeed="14.35" duration="142.00" routeLength="535.78" waitingTime="70.00" waitingCount="2" stopTime="0.00" timeLoss="102.92" rerouteNo="4" devices="tripinfo_136 fcd_136" vType="DEFAULT_VEHTYPE" speedFactor="1.07" vaporized=""/>
    <tripinfo id="124" depart="31.00" departLane="-gneE23_0" departPos="5.10" departSpeed="0.00" departDelay="0.29" arrival="187.00" arrivalLane="gneE26_0" arrivalPos="97.15" arrivalSpeed="11.70" duration="156.00" routeLength="374.76" waitingTime="95.00" waitingCount="4" stopTime="0.00" timeLoss="123.55" rerouteNo="3" devices="tripinfo_124 fcd_124" vType="DEFAULT_VEHTYPE" speedFactor="0.92" vaporized=""/>
    <tripinfo id="50" depart="34.00" departLane="-gneE10_0" departPos="5.10" departSpeed="0.00" departDelay="3.00" arrival="189.00" arrivalLane="gneE19_0" arrivalPos="130.57" arrivalSpeed="5.55" duration="155.00" routeLength="592.49" waitingTime="85.00" waitingCount="3" stopTime="0.00" timeLoss="113.71" rerouteNo="0" devices="tripinfo_50 fcd_50" vType="DEFAULT_VEHTYPE" speedFactor="1.09" vaporized=""/>
    <tripinfo id="17" depart="15.00" departLane="-gneE25_0" departPos="5.10" departSpeed="0.00" departDelay="4.46" arrival="190.00" arrivalLane="gneE12_0" arrivalPos="27.94" arrivalSpeed="6.65" duration="175.00" routeLength="375.87" waitingTime="98.00" waitingCount="5" stopTime="0.00" timeLoss="146.72" rerouteNo="0" devices="tripinfo_17 fcd_17" vType="DEFAULT_VEHTYPE" speedFactor="1.01" vaporized=""/>
    <tripinfo id="140" depart="43.00" departLane="-gneE23_0" departPos="5.10" departSpeed="0.00" departDelay="0.86" arrival="193.00" arrivalLane="gneE26_0" arrivalPos="97.15" arrivalSpeed="10.74" duration="150.00" routeLength="374.76" waitingTime="85.00" waitingCount="3" stopTime="0.00" timeLoss="114.44" rerouteNo="3" devices="tripinfo_140 fcd_140" vType="DEFAULT_VEHTYPE" speedFactor="0.82" vaporized=""/>
    <tripinfo id="20" depart="13.00" departLane="gneE15_0" departPos="5.10" departSpeed="0.00" departDelay="0.60" arrival="203.00" arrivalLane="-gneE11_0" arrivalPos="159.77" arrivalSpeed="14.75" duration="190.00" routeLength="449.99" waitingTime="131.00" waitingCount="3" stopTime="0.00" timeLoss="158.18" rerouteNo="0" devices="tripinfo_20 fcd_20" vType="DEFAULT_VEHTYPE" speedFactor="1.10" vaporized=""/>
    <tripinfo id="78" depart="49.00" departLane="-gneE23_0" departPos="5.10" departSpeed="0.00" departDelay="0.64" arrival="238.00" arrivalLane="gneE13_0" arrivalPos="162.05" arrivalSpeed="6.29" duration="189.00" routeLength="431.33" waitingTime="99.00" waitingCount="7" stopTime="0.00" timeLoss="150.77" rerouteNo="0" devices="tripinfo_78 fcd_78" vType="DEFAULT_VEHTYPE" speedFactor="0.89" vaporized=""/>
    <tripinfo id="7" depart="6.00" departLane="gneE13_0" departPos="5.10" departSpeed="0.00" departDelay="1.66" arrival="240.00" arrivalLane="gneE12_0" arrivalPos="27.94" arrivalSpeed="13.24" duration="234.00" routeLength="430.95" waitingTime="175.00" waitingCount="4" stopTime="0.00" timeLoss="199.82" rerouteNo="0" devices="tripinfo_7 fcd_7" vType="DEFAULT_VEHTYPE" speedFactor="0.99" vaporized=""/>
    <tripinfo id="62" depart="40.00" departLane="-gneE10_0" departPos="5.10" departSpeed="0.00" departDelay="1.56" arrival="241.00" arrivalLane="-gneE23_0" arrivalPos="44.83" arrivalSpeed="14.15" duration="201.00" routeLength="542.65" waitingTime="125.00" waitingCount="3" stopTime="0.00" timeLoss="164.98" rerouteNo="0" devices="tripinfo_62 fcd_62" vType="DEFAULT_VEHTYPE" speedFactor="1.18" vaporized=""/>
    <tripinfo id="82" depart="3.00" departLane="gneE13_0" departPos="5.10" departSpeed="0.00" departDelay="2.29" arrival="245.00" arrivalLane="gneE26_0" arrivalPos="97.15" arrivalSpeed="15.03" duration="242.00" routeLength="551.14" waitingTime="143.00" waitingCount="5" stopTime="0.00" timeLoss="202.07" rerouteNo="4" devices="tripinfo_82 fcd_82" vType="DEFAULT_VEHTYPE" speedFactor="1.08" vaporized=""/>
    <tripinfo id="68" depart="95.00" departLane="-gneE12_0" departPos="5.10" departSpeed="0.00" departDelay="52.84" arrival="245.00" arrivalLane="gneE20_0" arrivalPos="108.29" arrivalSpeed="14.39" duration="150.00" routeLength="487.86" waitingTime="95.00" waitingCount="3" stopTime="0.00" timeLoss="116.23" rerouteNo="0" devices="tripinfo_68 fcd_68" vType="DEFAULT_VEHTYPE" speedFactor="1.12" vaporized=""/>
    <tripinfo id="88" depart="5.00" departLane="gneE14_0" departPos="5.10" departSpeed="0.00" departDelay="0.00" arrival="249.00" arrivalLane="gneE26_0" arrivalPos="97.15" arrivalSpeed="11.29" duration="244.00" routeLength="477.89" waitingTime="173.00" waitingCount="4" stopTime="0.00" timeLoss="202.09" rerouteNo="6" devices="tripinfo_88 fcd_88" vType="DEFAULT_VEHTYPE" speedFactor="0.88" vaporized=""/>
    <tripinfo id="110" depart="24.00" departLane="-gneE27_0" departPos="5.10" departSpeed="0.00" departDelay="3.29" arrival="251.00" arrivalLane="gneE26_0" arrivalPos="97.15" arrivalSpeed="13.68" duration="227.00" routeLength="361.66" waitingTime="164.00" waitingCount="4" stopTime="0.00" timeLoss="198.14" rerouteNo="4" devices="tripinfo_110 fcd_110" vType="DEFAULT_VEHTYPE" speedFactor="0.99" vaporized=""/>